[
    "abundance_crust",
    "abundance_sea",
    "atomic_number",
    "atomic_radius",
    "atomic_radius_rahm",
    "atomic_volume",
    "atomic_weight",
    "boiling_point",
    "c6",
    "c6_gb",
    "covalent_radius_bragg",
    "covalent_radius_cordero",
    "covalent_radius_pyykko",
    "covalent_radius_pyykko_double",
    "covalent_radius_pyykko_triple",
    "covalent_radius_slater",
    "density",
    "dipole_polarizability",
    "dipole_polarizability_unc",
    "electron_affinity",
    "en_allen",
    "en_ghosh",
    "en_pauling",
    "evaporation_heat",
    "fusion_heat",
    "gas_basicity",
    "glawe_number",
    "heat_of_formation",
    "lattice_constant",
    "melting_point",
    "mendeleev_number",
    "metallic_radius",
    "metallic_radius_c12",
    "period",
    "pettifor_number",
    "proton_affinity",
    "specific_heat",
    "thermal_conductivity",
    "vdw_radius",
    "vdw_radius_alvarez",
    "vdw_radius_batsanov",
    "vdw_radius_bondi",
    "vdw_radius_dreiding",
    "vdw_radius_mm3",
    "vdw_radius_rt",
    "vdw_radius_truhlar",
    "vdw_radius_uff",
    "ionization_energy",
    "atomic_radius",
    "magnetic_moment",
    "valence_number"
]